ITEM: TIMESTEP
1000000
ITEM: NUMBER OF ATOMS
17280
ITEM: BOX BOUNDS pp pp pp
-74.9454 74.9454
-72.0258 72.0258
-36.5586 186.559
ITEM: ATOMS id type xu yu zu c_q[1] c_q[2] c_q[3] c_q[4] c_shape[1] c_shape[2] c_shape[3] vx vy vz angmomx angmomy angmomz mol 
1 1 -71.5255 -2.59958 -45.8975 -0.210081 -0.789713 -0.153889 0.555461 2.6697 2.1835 2.9792 0.00196645 -0.000526509 5.40271e-05 0.239005 0.0531781 0.012417 1 
2 1 -69.0945 -0.26259 -45.7435 0.841566 -0.307929 -0.27694 0.346773 2.6697 2.1835 2.9792 0.00358825 -0.00140459 0.000547868 -0.262314 0.129633 0.296781 1 
3 1 -66.4019 -1.64697 -44.2291 -0.103729 -0.987062 -0.0238337 -0.119923 2.6697 2.1835 2.9792 -0.00304743 0.000377155 0.000296953 0.0832461 -0.130132 -0.135907 1 
4 2 -66.5438 -1.70901 -40.8337 0.628596 -0.0669733 -0.740228 0.229006 2.5476 2.5476 1.75175 0.00300325 -0.000629185 0.000501058 -0.0982265 -0.117558 -0.0874562 1 
5 1 -64.3286 -3.61488 -39.0826 0.30787 0.876726 -0.168773 0.32876 2.6697 2.1835 2.9792 -0.000489446 -0.00321479 -0.00250573 0.12982 0.124751 0.00656037 1 
6 1 -61.3859 -4.53353 -40.4409 0.360776 0.896079 -0.223085 -0.13083 2.6697 2.1835 2.9792 4.97906e-05 -0.00266343 0.000647079 -0.225873 0.546238 0.1056 1 
7 1 -58.5664 -2.25557 -40.1526 -0.856057 0.23575 0.426608 -0.172028 2.6697 2.1835 2.9792 0.00214891 -0.00121598 0.00093578 -0.402663 -0.252344 -0.59774 1 
8 2 -55.3719 -2.41888 -41.2552 -0.265998 -0.862988 -0.240692 0.35576 2.5476 2.5476 1.75175 -0.00362049 -0.0026995 -0.00126029 -0.154595 -0.334851 -0.112076 1 
9 1 -52.3083 -4.15368 -40.9859 0.748597 0.598791 -0.028994 -0.283215 2.6697 2.1835 2.9792 -0.000594032 -0.000755509 0.000355693 -0.119015 -0.0510059 -0.206418 1 
10 1 -53.2332 -7.55448 -41.6744 -0.157355 -0.555862 0.710639 0.401557 2.6697 2.1835 2.9792 5.57694e-05 0.00207474 -0.00124848 -0.589736 0.234649 0.0990757 1 
11 1 -50.9397 -10.034 -41.4391 -0.839728 0.44202 0.0317369 0.313796 2.6697 2.1835 2.9792 0.000357395 -0.000508104 -3.7338e-05 -0.0589247 0.197956 0.335317 1 
12 2 -51.4349 -13.3074 -42.7986 -0.276679 -0.585804 0.437262 0.623766 2.5476 2.5476 1.75175 -0.00196048 0.00101045 0.000550861 0.211382 -0.219499 -0.0547548 1 
13 1 -48.8533 -13.5119 -45.1584 0.77683 -0.581109 0.191462 0.14896 2.6697 2.1835 2.9792 -0.00271906 -0.00163486 -0.00150596 0.00651134 0.189411 0.374006 1 
14 1 -47.2635 -16.0452 -43.5036 0.653782 0.263231 -0.364771 -0.608458 2.6697 2.1835 2.9792 -0.00069596 -0.00142402 0.001008 -0.296119 0.0839043 -0.130408 1 
15 1 -44.3782 -17.0917 -45.5438 -0.612158 0.741938 -0.248256 -0.114718 2.6697 2.1835 2.9792 -0.00254323 -0.00118498 -0.00249115 0.300212 -0.33561 0.234374 1 
16 2 -43.8367 -20.7103 -45.2563 0.721759 0.23158 -0.460168 -0.462255 2.5476 2.5476 1.75175 -0.00226584 -0.00161413 -0.00299164 -0.110592 0.0828369 -0.146388 1 
17 1 -41.1907 -22.0885 -47.0885 -0.458856 0.847081 -0.240929 -0.117716 2.6697 2.1835 2.9792 -0.000411851 -0.00238428 0.0022513 0.15792 -0.0557736 0.389808 1 
18 1 -39.7297 -24.1835 -44.7617 0.64892 0.243164 -0.571768 -0.439153 2.6697 2.1835 2.9792 0.0011163 -0.00168772 -0.00185032 0.145358 0.15494 -0.119767 1 
19 1 -36.3826 -24.6698 -43.9819 -0.887942 -0.317225 0.281756 0.177599 2.6697 2.1835 2.9792 0.00142675 0.000979905 -0.00108414 0.100331 -0.29799 -0.139354 1 
20 2 -33.3961 -23.0821 -45.3638 -0.515299 0.748197 0.368928 -0.196369 2.5476 2.5476 1.75175 -0.00409901 0.0012828 5.67991e-05 -0.340884 0.188578 0.0785098 1 
21 1 -31.403 -23.9509 -42.9502 -0.599166 -0.629859 0.477502 -0.127551 2.6697 2.1835 2.9792 -0.000774461 0.000136683 -0.00291587 0.490824 -0.0463139 0.0620596 1 
22 1 -28.7875 -22.2621 -41.6032 0.562908 -0.73512 -0.351175 0.139319 2.6697 2.1835 2.9792 -9.63752e-05 0.000976521 0.00210313 0.102885 0.0195757 0.199164 1 
23 1 -26.7409 -23.9223 -39.4712 0.711305 0.421719 -0.498707 -0.259789 2.6697 2.1835 2.9792 0.00275713 0.00188004 0.000491489 -0.021168 -0.153306 0.113602 1 
24 2 -23.6276 -24.9575 -40.9606 0.58098 -0.808429 0.015385 0.0931048 2.5476 2.5476 1.75175 -0.0015835 0.00174768 0.000305393 0.0261801 0.163835 -0.167947 1 
25 1 -21.7439 -25.0107 -37.9967 -0.898994 0.114019 0.381773 0.181821 2.6697 2.1835 2.9792 -0.000297455 0.000569113 -0.000153469 0.0946292 -0.216944 -0.0728398 1 
26 1 -21.4783 -28.523 -38.0464 0.00466675 0.80589 -0.589839 -0.0510711 2.6697 2.1835 2.9792 -4.42697e-05 -0.000771454 -0.00121442 -0.109506 -0.069176 -0.267394 1 
27 1 -18.9813 -28.7655 -35.5125 -0.780529 0.442338 0.406046 0.173889 2.6697 2.1835 2.9792 -0.00308712 -0.00386915 0.00211506 -0.056602 -0.459051 0.0209669 1 
28 2 -18.0127 -31.7473 -34.8467 -0.22228 -0.747395 0.589749 0.210211 2.5476 2.5476 1.75175 0.00453533 -0.000347013 0.000107151 -0.150091 0.0950557 -0.128407 1 
29 1 -15.1637 -32.5811 -32.8581 -0.646643 0.561808 0.375134 0.35426 2.6697 2.1835 2.9792 -0.00266362 0.00172269 0.00336576 -0.026437 -0.102375 0.100613 1 
30 1 -15.0489 -36.0164 -31.9952 -0.325761 -0.570621 0.714268 0.241024 2.6697 2.1835 2.9792 0.00253819 0.00233678 -0.00131994 -0.261452 0.466662 -0.0211275 1 
31 1 -11.9629 -37.4336 -30.523 0.863708 -0.294587 -0.237099 -0.333182 2.6697 2.1835 2.9792 -0.00126124 7.65458e-05 0.00201389 -0.0289402 -0.0591306 0.0212156 1 
32 2 -12.2201 -40.7964 -31.0385 -0.650609 0.268461 -0.29174 0.647707 2.5476 2.5476 1.75175 -0.00157677 -0.000284446 -0.00210589 -0.0543031 -0.164983 -0.231766 1 
33 1 -13.2531 -41.7708 -27.9716 0.461247 -0.369244 -0.515 -0.621036 2.6697 2.1835 2.9792 -0.00485776 0.00131985 -0.000715352 -0.0354416 0.330377 0.347384 1 
34 1 -14.5087 -44.8132 -27.9279 0.145337 -0.756932 0.622171 -0.137239 2.6697 2.1835 2.9792 -0.00399051 0.0001273 -0.00105066 0.21138 -0.0991005 0.0753023 1 
35 1 -14.8532 -45.759 -24.6298 0.449793 -0.257115 -0.721808 -0.45888 2.6697 2.1835 2.9792 -0.00354659 -0.00306417 0.00226941 -0.0786184 -0.112428 0.0374159 1 
36 2 -15.2616 -49.131 -23.5988 0.43605 0.543361 -0.642459 -0.319165 2.5476 2.5476 1.75175 0.00128595 -0.00264045 -0.00262223 -0.275806 -0.38091 -0.0106097 1 
37 1 -14.4594 -50.5826 -26.4423 0.693878 0.252214 0.252933 -0.625257 2.6697 2.1835 2.9792 0.000722386 -0.00214807 0.00394886 0.0316017 -0.428833 -0.088652 1 
38 1 -16.6143 -49.4813 -29.0842 0.472213 0.0420834 0.83125 -0.29029 2.6697 2.1835 2.9792 -0.000299601 -0.00128252 0.000925976 0.0764039 -0.230256 -0.401287 1 
39 1 -19.3762 -51.43 -27.9656 -0.0901493 0.189782 0.0725385 0.974984 2.6697 2.1835 2.9792 0.00220066 0.0039786 0.0023592 0.150284 0.163126 0.134204 1 
40 2 -19.8257 -48.9584 -25.2586 0.0109125 0.564585 0.747566 0.349672 2.5476 2.5476 1.75175 0.00137173 -0.00290845 0.00106865 0.11359 0.107801 0.289538 1 
41 1 -21.759 -49.7274 -22.4724 0.213047 0.477376 -0.724102 0.449889 2.6697 2.1835 2.9792 0.00230822 8.34514e-05 0.00060289 0.257377 0.20821 0.25869 1 
42 1 -21.7047 -47.5777 -19.7528 -0.0253952 -0.753034 -0.48457 -0.444395 2.6697 2.1835 2.9792 0.000154028 -0.000640643 0.00208812 -0.028315 -0.139962 0.163056 1 
43 1 -23.6715 -49.1596 -17.4647 -0.286039 0.503609 0.448694 0.680612 2.6697 2.1835 2.9792 0.000806115 -0.00254178 0.000843011 -0.252256 0.123795 -0.202486 1 
44 2 -26.6669 -51.2254 -17.5224 0.135148 0.0681345 -0.0872487 -0.984622 2.5476 2.5476 1.75175 -0.00117343 0.00334521 -0.000348857 0.0640541 0.0593022 -0.142155 1 
45 1 -28.9213 -48.537 -16.3468 -0.281889 -0.433901 -0.439344 -0.734333 2.6697 2.1835 2.9792 -0.00196681 -0.0018294 -0.0017172 -0.0619947 -0.225292 0.382703 1 
46 1 -31.7847 -47.9308 -17.8911 0.434415 0.310534 0.729527 -0.427367 2.6697 2.1835 2.9792 1.33097e-05 -0.000827153 0.00127152 0.118877 -0.147096 0.280568 1 
47 1 -34.5129 -45.807 -17.4226 -0.107177 0.421123 0.899107 0.052678 2.6697 2.1835 2.9792 0.00204527 -0.000867384 0.00254063 -0.0192989 -0.0162319 0.00576787 1 
48 2 -36.4007 -46.6499 -14.4237 -0.107143 -0.605255 0.271204 -0.740699 2.5476 2.5476 1.75175 0.000674574 -0.00125667 -0.00411458 0.166629 -0.146509 -0.234169 1 
49 1 -24.3897 -23.8061 -32.7119 0.651813 -0.498952 -0.509813 -0.257443 2.6697 2.1835 2.9792 0.00172091 0.000905793 0.00139882 -0.163366 -0.033455 -0.338954 2 
50 1 -23.0018 -26.773 -31.8273 -0.124018 -0.746442 0.650569 -0.0648295 2.6697 2.1835 2.9792 -0.00249551 -0.00138466 -0.00111877 -0.296813 -0.0018299 0.209337 2 
51 1 -21.3068 -26.771 -28.668 -0.673481 -0.626671 0.340609 -0.194142 2.6697 2.1835 2.9792 -0.000655441 0.00137896 -0.00109716 -0.284126 -0.218088 -0.336869 2 
52 2 -19.1236 -29.0018 -30.4611 0.824835 -0.0210908 0.214034 -0.522868 2.5476 2.5476 1.75175 -0.00216279 0.000746573 0.0022296 -0.11606 -0.1143 0.156204 2 
53 1 -17.2502 -29.8424 -27.8672 -0.690937 -0.144334 0.579046 0.408019 2.6697 2.1835 2.9792 0.00333078 -0.000757767 0.000997813 0.156295 0.0497277 -0.0632702 2 
54 1 -14.4208 -31.797 -27.0434 0.762003 -0.568124 0.132728 -0.281014 2.6697 2.1835 2.9792 -0.000717897 -0.00181688 0.00280822 -0.410937 0.194912 -0.28177 2 
55 1 -15.2923 -34.3096 -24.8399 -0.0065903 0.698297 -0.32978 0.635282 2.6697 2.1835 2.9792 -0.000954182 -0.000338643 0.00337834 0.438911 0.274444 0.205653 2 
56 2 -12.068 -35.4748 -24.236 -0.284514 0.95333 -0.100173 0.0134074 2.5476 2.5476 1.75175 -0.0007306 0.00109403 -0.00299902 -0.118225 0.278963 -0.224845 2 
57 1 -11.0897 -35.0543 -20.6447 0.720755 0.121867 -0.682357 -0.00700141 2.6697 2.1835 2.9792 -0.00189033 -0.00119913 0.00134736 -0.0828361 0.171097 0.157687 2 
58 1 -8.09471 -37.1264 -20.5071 0.937188 0.152632 -0.114273 -0.292101 2.6697 2.1835 2.9792 0.00186402 0.00153503 -0.00155989 -0.258462 0.282174 -0.545104 2 
59 1 -6.97278 -38.6874 -23.5496 -0.0764222 -0.753662 0.260034 0.598779 2.6697 2.1835 2.9792 0.00176397 -0.00110226 0.00285666 -0.345684 -0.0419081 -0.060582 2 
60 2 -3.9469 -37.7501 -25.1357 -0.886173 0.399207 -0.106843 -0.20956 2.5476 2.5476 1.75175 -0.00374698 0.00153671 0.000360525 0.000445532 -0.149606 -0.126348 2 
61 1 -1.50855 -39.7375 -23.7241 0.849062 0.301153 -0.392117 -0.186129 2.6697 2.1835 2.9792 -0.00121241 0.000148762 0.000373043 0.417582 -0.383192 -0.175758 2 
62 1 -3.37576 -42.5333 -23.1314 0.219567 0.479812 -0.807037 -0.265068 2.6697 2.1835 2.9792 -0.00397509 -0.00188209 7.90914e-06 -0.00329448 0.132798 -0.166234 2 
63 1 -4.78869 -42.8381 -26.2331 0.599863 -0.214574 0.744707 0.198833 2.6697 2.1835 2.9792 -0.000253243 0.00318324 9.77449e-05 -0.00112034 0.082005 0.0373689 2 
64 2 -7.22477 -45.0087 -26.2703 -0.00703714 -0.18193 0.982582 0.0372201 2.5476 2.5476 1.75175 -0.000589022 0.00144577 0.00242228 0.219243 -0.0636028 -0.126885 2 
65 1 -6.99138 -48.6428 -25.6219 -0.317642 0.698139 -0.222545 0.601813 2.6697 2.1835 2.9792 -0.000738186 -0.00102499 0.00022311 -0.0201282 -0.403535 0.184772 2 
66 1 -10.3039 -48.8371 -24.2791 0.0117516 0.0102896 -0.953374 -0.301386 2.6697 2.1835 2.9792 0.00175913 0.00255408 -0.00312101 -0.154357 0.110382 0.349077 2 
67 1 -11.2397 -50.5769 -21.5905 -0.497179 0.498385 0.300212 0.64366 2.6697 2.1835 2.9792 -0.000725792 -0.000622226 -0.000874215 0.329346 0.107641 -0.0830087 2 
68 2 -13.876 -52.8507 -21.5574 0.263238 -0.0883543 0.122386 -0.952849 2.5476 2.5476 1.75175 0.00346208 -0.001981 0.00259605 0.136216 -0.122788 0.0864641 2 
69 1 -15.084 -51.7675 -18.5657 0.0974573 -0.625098 -0.355971 -0.687778 2.6697 2.1835 2.9792 -0.00125793 -0.00106022 0.000685236 -0.0329282 -0.0322254 0.216348 2 
70 1 -18.0782 -50.2145 -18.0336 0.00457376 0.188798 0.967117 -0.170351 2.6697 2.1835 2.9792 0.00120259 0.00148662 0.00245932 0.0575741 0.0231345 -0.205608 2 
71 1 -19.2841 -51.1361 -15.0937 0.00442018 0.54681 -0.29076 0.785135 2.6697 2.1835 2.9792 -0.00153506 0.00354588 0.000295377 0.165035 -0.0148605 0.227819 2 
72 2 -20.3382 -48.0818 -13.5201 -0.0584893 -0.632146 -0.674547 -0.376772 2.5476 2.5476 1.75175 0.00127977 -0.00278949 0.00227779 -0.0342292 0.044873 0.085162 2 
73 1 -23.5735 -47.7718 -12.6661 -0.191313 -0.163486 0.676566 -0.692047 2.6697 2.1835 2.9792 -0.00342873 -0.00152821 -0.000855509 0.0737493 -0.122447 -0.327947 2 
74 1 -23.8835 -44.4742 -11.4219 0.344911 0.69978 0.518178 0.35048 2.6697 2.1835 2.9792 -0.00222366 -0.00341352 0.000941197 -0.0596506 0.101994 0.131997 2 
75 1 -26.7965 -42.76 -11.1461 0.374847 0.150572 -0.457257 0.792297 2.6697 2.1835 2.9792 0.00123138 -0.00364633 -9.52441e-05 -0.125798 -0.110417 -0.463599 2 
76 2 -27.7925 -40.1909 -13.1297 -0.363203 -0.321544 -0.874214 -0.021053 2.5476 2.5476 1.75175 0.00196176 -0.0030138 0.000143161 -0.0287433 0.0188528 -0.178508 2 
77 1 -31.0165 -39.8572 -12.0128 0.181356 0.279422 -0.402569 0.852626 2.6697 2.1835 2.9792 -0.00214676 0.00267031 0.00237439 -0.175342 -0.470662 -0.302634 2 
78 1 -32.2184 -36.8289 -12.9075 -0.539233 0.328284 0.333476 -0.700179 2.6697 2.1835 2.9792 0.000528781 0.0016205 0.000863094 -0.329964 -0.188008 -0.135073 2 
79 1 -29.0242 -35.308 -11.876 0.209857 0.863429 0.457761 0.0301025 2.6697 2.1835 2.9792 -0.000367234 0.00221805 -0.00133634 0.260755 -0.514785 0.164766 2 
80 2 -30.4313 -32.5208 -10.3418 0.559821 -0.0455354 -0.720648 0.406439 2.5476 2.5476 1.75175 0.00200108 -0.00032668 -0.00133869 0.188419 0.0150653 -0.135958 2 
81 1 -27.6618 -31.3275 -8.72623 0.277832 0.893692 0.1729 0.306968 2.6697 2.1835 2.9792 -0.000540073 7.20052e-05 0.000996594 0.0875719 -0.167424 0.141208 2 
82 1 -28.868 -28.0069 -7.87454 -0.382789 0.193444 0.770648 -0.471332 2.6697 2.1835 2.9792 0.00195332 0.00269655 -0.00259343 0.221497 -0.304836 0.210318 2 
83 1 -27.5967 -24.8762 -7.07806 -0.00753584 -0.65275 -0.74963 -0.109155 2.6697 2.1835 2.9792 -0.000396416 0.00244198 0.00167489 0.04455 -0.295527 -0.117408 2 
84 2 -28.8489 -24.4819 -3.83445 0.415609 0.559209 -0.370023 0.614521 2.5476 2.5476 1.75175 -0.00104297 -0.00170666 0.00398898 0.223121 0.25342 -0.0925186 2 
85 1 -28.1981 -21.3814 -2.70156 -0.24891 0.732285 0.62427 -0.109951 2.6697 2.1835 2.9792 -0.00119618 -0.00304154 0.00402126 0.280427 0.248418 -0.128767 2 
86 1 -26.7266 -20.8248 0.515858 -0.782955 -0.349558 0.51452 -0.00769179 2.6697 2.1835 2.9792 0.00252538 0.000620043 0.000597594 -0.189653 -0.0440116 -0.0819237 2 
87 1 -28.9746 -19.9322 3.14229 -0.266738 0.0847582 0.870564 -0.404704 2.6697 2.1835 2.9792 0.00104817 -0.00284573 -0.00158906 -0.0203012 -0.0545916 0.16423 2 
88 2 -28.6354 -18.8799 6.42668 0.120594 0.522997 -0.29737 0.789622 2.5476 2.5476 1.75175 -0.00418716 -0.00110259 0.000883147 -0.129832 0.0156311 -0.168955 2 
89 1 -26.5763 -17.4713 9.19116 0.866572 0.229829 -0.415814 0.152744 2.6697 2.1835 2.9792 0.0011972 -0.000880315 -0.000395666 0.0429161 -0.0252542 0.113651 2 
90 1 -28.7566 -17.613 11.9776 -0.343947 0.00607138 0.934101 -0.0954915 2.6697 2.1835 2.9792 -0.000559349 0.00282796 -0.00125039 0.415292 0.270387 -0.305264 2 
91 1 -27.139 -15.8454 14.4688 -0.88708 0.184406 0.416336 -0.0758172 2.6697 2.1835 2.9792 5.91137e-05 -0.00180749 0.00191135 -0.132854 0.193501 0.104088 2 
92 2 -27.2567 -17.6366 17.3449 0.396169 0.503177 -0.756182 0.134357 2.5476 2.5476 1.75175 0.00202458 0.00127752 -0.000712038 0.164166 0.0354952 -0.00111392 2 
93 1 -24.5184 -19.6923 17.4969 0.917976 0.144287 -0.110301 -0.352612 2.6697 2.1835 2.9792 -0.00210944 -0.00210491 0.00105036 -0.00353509 -0.0566922 0.13508 2 
94 1 -25.0923 -21.2707 20.5144 -0.487031 0.275188 0.703564 0.438257 2.6697 2.1835 2.9792 0.00183596 0.000526902 -0.000705562 0.13154 -0.0477741 -0.218247 2 
95 1 -26.7448 -24.2219 20.7706 -0.319783 0.530704 -0.679563 0.392793 2.6697 2.1835 2.9792 -0.00281634 -0.00137713 0.000498204 -0.51874 0.207842 -0.176117 2 
96 2 -29.7581 -24.7298 22.401 -0.129289 0.0607673 0.785381 0.602303 2.5476 2.5476 1.75175 0.00120154 0.0016401 -0.000747108 -0.0923975 -0.105449 0.126751 2 
97 1 12.2613 21.5388 11.9959 0.33389 0.746709 -0.566242 0.101553 2.6697 2.1835 2.9792 -0.000345511 -0.000720374 -0.000254433 -0.360311 0.0373036 0.0182686 3 
98 1 11.7721 18.6979 10.1543 0.698675 -0.506688 0.479347 -0.159209 2.6697 2.1835 2.9792 0.000951322 -0.00197066 0.00241546 0.225092 -0.0427414 0.119223 3 
99 1 9.77919 15.4672 10.4497 0.446441 0.103124 -0.296536 -0.837928 2.6697 2.1835 2.9792 0.000410704 0.00102233 -0.00105723 -0.429695 0.491202 0.149678 3 
100 2 7.96917 14.72 7.54737 0.483496 -0.379907 0.737172 0.280141 2.5476 2.5476 1.75175 0.00048145 -0.00323266 -0.000398822 0.377776 -0.181339 0.21365 3 
101 1 7.98756 11.3288 7.20474 0.756214 -0.210183 0.0728528 -0.61535 2.6697 2.1835 2.9792 0.00471749 0.00205718 -0.000923325 -0.060844 0.103142 -0.0536507 3 
102 1 5.77196 9.03925 6.01155 0.00398143 -0.353449 0.628051 0.693261 2.6697 2.1835 2.9792 -0.000143487 -0.00331468 -0.000618895 0.21499 -0.170122 -0.118209 3 
103 1 6.89798 5.793 5.62912 -0.727194 0.419764 -0.218772 0.497118 2.6697 2.1835 2.9792 -0.00322545 0.000935477 0.00064446 0.0185542 -0.0210481 -0.0491687 3 
104 2 4.19437 3.65831 4.89873 -0.216354 -0.272772 0.591308 0.727421 2.5476 2.5476 1.75175 0.00166303 0.00191779 0.000113183 -0.0321888 0.1971 0.0901323 3 
105 1 4.46546 1.61548 1.72064 0.603929 -0.552215 0.570942 -0.0659837 2.6697 2.1835 2.9792 -0.0032119 0.00249955 -0.00242002 0.468093 -0.0200458 -0.156523 3 
106 1 3.12103 -1.53269 2.60566 -0.330576 -0.152015 0.460853 0.80946 2.6697 2.1835 2.9792 0.000820916 0.00145283 -0.00273933 0.0172821 0.21632 -0.241551 3 
107 1 3.74488 -3.2504 -0.563468 -0.583213 0.607596 -0.539055 -0.01042 2.6697 2.1835 2.9792 -0.00160981 0.000213527 -0.000707875 0.219877 -0.0474104 -0.188782 3 
108 2 1.51555 -6.16805 -1.25935 0.308278 0.201298 -0.304201 -0.878582 2.5476 2.5476 1.75175 -0.000834311 0.00163504 -0.0012256 -0.0588832 0.0430679 0.105065 3 
109 1 0.857024 -6.79389 -4.72933 0.548611 -0.314427 0.768171 0.100374 2.6697 2.1835 2.9792 -0.0035329 -0.00198236 -0.00211469 0.0192896 -0.111161 -0.0420676 3 
110 1 0.805061 -10.2133 -4.07507 0.563723 -0.142334 -0.0713938 -0.810469 2.6697 2.1835 2.9792 0.00358495 0.00120318 0.000265677 -0.221071 0.0140004 -0.224223 3 
111 1 0.362149 -12.3453 -6.85485 0.519755 -0.661708 0.535789 0.0701922 2.6697 2.1835 2.9792 0.00293312 -0.00390349 -0.000838428 -0.0851477 0.305979 0.246809 3 
112 2 0.500298 -15.3266 -4.75767 -0.554183 0.23499 0.38481 0.699702 2.5476 2.5476 1.75175 -0.00216975 -0.000219653 0.00170618 -0.0565203 0.277874 -0.125621 3 
113 1 -2.84423 -16.357 -5.25058 -0.0309199 -0.206342 0.915516 0.343943 2.6697 2.1835 2.9792 -0.00187983 -0.00425706 0.00149259 -0.00194551 0.309587 -0.217654 3 
114 1 -2.73283 -19.264 -3.74199 -0.341838 0.620298 -0.0323224 0.705218 2.6697 2.1835 2.9792 0.00331259 -0.00208024 -0.000610753 -0.282708 -0.0339804 -0.295349 3 
115 1 -5.81367 -21.1903 -3.92395 0.00357986 0.434301 -0.873377 -0.220413 2.6697 2.1835 2.9792 -0.00429331 -0.00371968 -0.00105189 0.107272 -0.126199 0.255906 3 
116 2 -6.19802 -22.4944 -0.812179 -0.45607 0.522497 0.278275 0.6645 2.5476 2.5476 1.75175 -0.00132917 -0.00379796 0.00405703 0.217091 -0.0472234 0.156712 3 
117 1 -9.2927 -23.6772 0.112012 -0.047825 -0.358695 0.931425 -0.0387044 2.6697 2.1835 2.9792 -0.000975957 4.96895e-05 -0.0034723 -0.542293 0.576506 -0.0392859 3 
118 1 -9.63595 -23.546 3.5761 0.198859 -0.791002 -0.0689472 -0.574471 2.6697 2.1835 2.9792 0.000406503 -0.00182839 0.00122499 -0.196525 0.225095 0.0459778 3 
119 1 -12.4382 -24.2503 5.41024 -0.20546 -0.00935103 0.951999 0.226708 2.6697 2.1835 2.9792 -0.000372549 -0.00041464 -0.00210586 -0.0264381 -0.225691 -0.187768 3 
120 2 -13.3213 -27.9158 5.16532 -0.153032 0.690259 -0.690542 0.152565 2.5476 2.5476 1.75175 0.00224702 0.000841103 0.000930361 0.0873631 -0.109814 -0.154153 3 
121 1 -10.7883 -28.8655 7.42649 -0.573446 0.492489 0.438117 0.486485 2.6697 2.1835 2.9792 0.00156023 0.000327682 0.000758097 0.0354342 -0.267156 0.218064 3 
122 1 -12.1516 -32.0214 8.59359 -0.131697 -0.568246 0.807545 0.0873081 2.6697 2.1835 2.9792 0.00145708 -0.00159935 0.000805884 0.175483 -0.0377604 0.229521 3 
123 1 -12.9474 -32.3086 11.8985 0.590465 0.466259 -0.593879 0.285062 2.6697 2.1835 2.9792 0.00569807 0.00404317 -0.000613955 0.242243 0.167995 0.253695 3 
124 2 -14.8223 -35.0219 12.7212 0.0804 0.693766 -0.689316 0.192528 2.5476 2.5476 1.75175 0.00286156 -0.0016308 0.000934265 -0.0746309 0.0459858 0.158158 3 
125 1 -18.028 -35.8851 13.5891 0.00656573 0.242676 -0.926877 -0.286295 2.6697 2.1835 2.9792 0.00170081 -0.00089865 0.00251541 -0.0212402 0.253748 0.256435 3 
126 1 -18.5294 -37.5504 16.5388 0.316066 -0.666584 0.0835388 -0.669918 2.6697 2.1835 2.9792 -0.00133713 -0.00156577 -0.000731797 0.0957826 0.314274 0.0940868 3 
127 1 -21.5777 -36.4564 17.6877 -0.00918073 -0.0906067 -0.935058 -0.342598 2.6697 2.1835 2.9792 -0.00280717 -0.0024895 0.000230196 -0.182625 0.446703 0.0998851 3 
128 2 -23.2004 -39.4477 18.8105 -0.352695 0.460697 -0.565225 0.586418 2.5476 2.5476 1.75175 -0.00563129 -0.000975197 0.00217729 -0.221469 -0.391691 -0.22483 3 
129 1 -26.3846 -39.0197 20.1957 -0.0456285 0.0585638 0.727621 0.68195 2.6697 2.1835 2.9792 0.000566549 7.96551e-05 0.00245464 -0.000842139 0.203596 0.27177 3 
130 1 -27.5367 -41.6199 18.3197 -0.505455 0.438757 -0.615114 0.416705 2.6697 2.1835 2.9792 -0.000240342 1.54938e-05 -0.00154646 0.182231 -0.109652 -0.0972205 3 
131 1 -30.9587 -42.7246 19.0725 0.0536498 0.0364873 0.49704 0.865299 2.6697 2.1835 2.9792 -0.00107175 -0.00372104 0.00264073 0.223926 -0.181815 0.140247 3 
132 2 -32.0298 -45.5827 16.9464 0.5368 -0.180219 0.817972 0.101433 2.5476 2.5476 1.75175 0.00204971 -0.00375691 0.000836241 -0.26078 0.0310575 0.014359 3 
133 1 -31.8548 -49.146 16.2705 0.680494 0.0686879 0.0922142 -0.723676 2.6697 2.1835 2.9792 -0.00048419 0.00222548 0.000220164 0.136963 -0.107067 0.159583 3 
134 1 -32.9528 -51.0544 19.0593 0.572971 0.0201361 -0.504978 -0.645211 2.6697 2.1835 2.9792 -0.00309271 -7.40465e-06 2.12197e-06 -0.170224 -0.301997 -0.338865 3 
135 1 -35.3837 -49.8153 21.0902 0.345247 0.162049 -0.660516 0.646733 2.6697 2.1835 2.9792 0.00143839 9.38106e-05 -0.00105346 -0.410823 -0.446807 -0.23023 3 
136 2 -36.2196 -52.9667 22.5029 -0.133112 0.708446 -0.394741 0.569707 2.5476 2.5476 1.75175 0.000745188 -0.00198128 -0.00185517 0.620308 0.0650281 -0.138351 3 
137 1 -38.2242 -51.812 25.0251 0.541304 0.291152 -0.452447 0.646151 2.6697 2.1835 2.9792 -0.00166794 -0.00231143 -0.00303992 0.0601332 -0.422086 0.541549 3 
138 1 -38.5792 -54.2028 27.5622 0.0888412 0.61874 -0.654201 0.425781 2.6697 2.1835 2.9792 0.000255019 -0.00415889 -0.00226486 -0.126243 -0.106776 0.0173057 3 
139 1 -38.5006 -52.3302 30.677 -0.346566 0.655959 0.579224 0.337801 2.6697 2.1835 2.9792 0.000448529 -0.00089774 -0.00205411 -0.0863344 -0.064204 -0.109257 3 
140 2 -37.933 -49.2355 29.4856 0.0111057 0.732698 0.606023 -0.309461 2.5476 2.5476 1.75175 -0.00335097 0.000487085 0.000177939 -0.028139 0.0793646 0.414577 3 
141 1 -40.983 -48.7353 28.0876 -0.325687 -0.035116 -0.801404 -0.500445 2.6697 2.1835 2.9792 -0.000894204 -0.000402934 0.00289423 -0.0612693 0.0732941 -0.174518 3 
142 1 -43.5513 -50.933 28.3359 -0.288405 0.297798 -0.629311 0.657349 2.6697 2.1835 2.9792 9.55222e-05 -0.00119059 -0.00124559 -0.167059 -0.195037 -0.20375 3 
143 1 -45.4994 -50.39 31.0481 -0.102764 -0.39296 -0.543126 -0.734872 2.6697 2.1835 2.9792 -0.000583023 -7.03919e-05 -0.00325703 -0.115345 -0.411616 -0.0399323 3 
144 2 -48.3751 -51.8622 31.4179 -0.00489001 -0.0302328 0.191619 0.980992 2.5476 2.5476 1.75175 0.000792697 -0.00214347 -0.00381993 0.0426686 -0.132241 0.0261142 3 
145 1 -51.9316 -3.93546 -58.4242 -0.336561 0.781125 0.369803 -0.37392 2.6697 2.1835 2.9792 -0.00128904 0.00238958 -0.00279581 -0.184977 -0.151275 -0.189704 4 
146 1 -53.0646 -1.64586 -56.177 -0.366503 0.294064 0.837603 -0.27861 2.6697 2.1835 2.9792 0.000650148 0.00185985 0.000159991 0.167811 0.274909 0.0779716 4 
147 1 -51.5171 -0.847584 -53.1487 0.54036 0.726942 -0.104451 0.410678 2.6697 2.1835 2.9792 -0.00280923 0.000476087 0.00187222 0.11513 0.109617 -0.579937 4 
148 2 -49.1001 -3.51744 -52.7906 -0.330474 -0.870684 0.293822 0.215324 2.5476 2.5476 1.75175 -0.00179442 0.00111399 0.00105598 -0.0406207 -0.00292716 -0.0571269 4 
149 1 -46.2767 -1.55267 -53.0471 -0.676008 0.668633 0.290729 -0.106864 2.6697 2.1835 2.9792 0.00513133 -0.00138554 0.00105386 -0.0444363 0.0863918 0.187233 4 
150 1 -44.0177 -3.84906 -51.9234 -0.297643 0.893142 -0.117599 0.316033 2.6697 2.1835 2.9792 -0.00199868 0.0030382 0.00329874 -0.154372 0.318096 -0.137794 4 
151 1 -44.6372 -4.27359 -48.6449 -0.512497 -0.112582 0.845946 0.0951134 2.6697 2.1835 2.9792 0.00108307 0.00102526 -0.000884465 0.0868965 0.144732 0.204687 4 
152 2 -42.487 -6.73416 -47.1932 0.106421 -0.948189 0.177358 -0.241155 2.5476 2.5476 1.75175 0.00087815 -0.00214363 -0.00194566 -0.104217 0.300882 -0.19676 4 
153 1 -40.831 -4.33924 -45.0712 0.679337 -0.379772 -0.627826 0.0104355 2.6697 2.1835 2.9792 -0.000393712 0.000242297 0.00264775 0.465227 0.0525101 0.0155471 4 
154 1 -42.4654 -6.11858 -42.5524 -0.194714 -0.442184 0.837893 -0.253958 2.6697 2.1835 2.9792 0.00165084 0.00173267 -6.70058e-05 0.148555 0.222459 0.0797774 4 
155 1 -40.4995 -6.38838 -39.7013 0.172853 -0.896846 -0.167739 -0.371016 2.6697 2.1835 2.9792 -0.00222375 -0.00181846 -0.00241029 -0.101647 0.0386959 0.0259708 4 
156 2 -42.3235 -7.64756 -37.0693 -0.537125 -0.186361 0.822516 -0.0152837 2.5476 2.5476 1.75175 -0.000486097 -0.0014514 -0.000752069 0.0477484 -0.107465 -0.0141138 4 
157 1 -39.6955 -9.45331 -35.4552 -0.164558 0.957861 -0.0988468 0.213665 2.6697 2.1835 2.9792 0.000805188 0.000375632 -0.00150459 0.0171941 -0.508973 -0.0143087 4 
158 1 -40.0721 -10.0049 -32.1162 -0.606362 -0.132009 0.783317 0.0362447 2.6697 2.1835 2.9792 0.00141933 0.000231418 0.00065497 -0.036519 0.0416644 0.148687 4 
159 1 -37.9648 -12.3581 -31.0433 -0.130246 -0.899045 0.415834 -0.0428569 2.6697 2.1835 2.9792 -0.00158064 -0.000596259 -0.000771555 -0.00421343 -0.647185 -0.119633 4 
160 2 -36.0318 -11.3961 -28.4088 0.700546 -0.504308 -0.485728 -0.137759 2.5476 2.5476 1.75175 -0.000781207 -0.0024649 0.00243385 0.0214734 0.0234384 -0.254716 4 
161 1 -37.7758 -12.9386 -25.6223 -0.443594 -0.215362 0.858089 -0.143273 2.6697 2.1835 2.9792 0.000504088 0.00154287 -0.00115448 0.361959 0.108919 -0.055734 4 
162 1 -35.266 -13.4087 -23.2162 -0.158879 0.934566 0.0832294 0.307274 2.6697 2.1835 2.9792 -0.00121749 0.00204794 -0.00168811 0.237584 0.40246 0.123255 4 
163 1 -35.8354 -11.5722 -20.5554 -0.634923 0.233352 0.735844 -0.0308804 2.6697 2.1835 2.9792 -0.0026021 -0.00131511 -7.78407e-05 -0.0469755 -0.400077 0.0731528 4 
164 2 -34.4318 -13.8122 -18.4165 -0.17059 -0.728322 0.662385 -0.0411437 2.5476 2.5476 1.75175 0.000714171 0.00216102 -0.000271513 -0.340184 0.0222884 -0.267391 4 
165 1 -31.711 -13.9663 -16.504 -0.866746 0.343348 0.28156 0.227127 2.6697 2.1835 2.9792 0.00134435 -0.000314402 0.000802958 -0.132075 -0.263249 -0.0231896 4 
166 1 -33.2363 -15.5489 -14.0709 0.289486 0.639765 -0.711295 0.0309527 2.6697 2.1835 2.9792 -2.12686e-06 0.000168226 -0.000883275 -0.0677004 0.461416 0.0167834 4 
167 1 -31.3629 -15.1726 -11.1464 -0.122976 0.885938 0.282176 0.34694 2.6697 2.1835 2.9792 0.000930576 -0.00252247 -0.000851956 -0.157442 -0.061828 -0.265723 4 
168 2 -28.6825 -14.6007 -12.9597 -0.936947 0.14448 -0.26988 -0.168583 2.5476 2.5476 1.75175 -0.000308036 0.000625645 -0.00130471 0.0179646 0.314857 0.133642 4 
169 1 -26.0575 -16.1992 -11.5865 0.842305 0.196342 -0.470981 -0.173633 2.6697 2.1835 2.9792 -0.000682559 -0.0020268 -0.000872745 -0.146281 0.0574843 -0.0601933 4 
170 1 -23.095 -16.688 -13.1204 -0.40776 0.788091 -0.258108 -0.382132 2.6697 2.1835 2.9792 0.0033249 0.000291516 0.00395252 -0.0544783 0.175505 0.015244 4 
171 1 -19.7451 -17.7915 -12.6182 -0.921184 -0.224345 0.0660844 0.311 2.6697 2.1835 2.9792 -0.00277854 -0.00250028 -0.00114763 -0.0340904 -0.234162 0.0675637 4 
172 2 -19.0982 -18.2644 -16.1005 -0.00630927 0.580835 -0.329262 -0.744431 2.5476 2.5476 1.75175 -2.33517e-05 -0.00245953 0.00139359 0.0772287 -0.0954918 0.247276 4 
173 1 -16.0393 -17.8315 -17.9415 0.967666 -0.0584979 0.103827 -0.222307 2.6697 2.1835 2.9792 0.00138175 -0.00103579 -0.00260345 -0.122889 -0.101804 0.322629 4 
174 1 -15.9794 -18.8406 -21.3704 0.640882 -0.518439 0.519881 -0.224087 2.6697 2.1835 2.9792 0.00220435 0.00229076 -0.00322736 -0.315876 -0.244345 -0.182941 4 
175 1 -18.1722 -21.4536 -20.2884 0.24539 0.302556 -0.640027 -0.662275 2.6697 2.1835 2.9792 -0.000535149 -0.00059927 -0.0032842 0.148838 0.300924 0.348152 4 
176 2 -16.5851 -23.65 -22.5932 0.701212 -0.507547 0.496693 -0.0632058 2.5476 2.5476 1.75175 -0.000261274 0.00115103 0.00317122 -0.106788 0.30327 0.229672 4 
177 1 -15.7932 -26.4357 -20.6234 -0.644941 0.197342 0.385373 0.629758 2.6697 2.1835 2.9792 -0.000710293 -0.00066608 -0.000334528 -0.359568 -0.18013 -0.355615 4 
178 1 -14.7717 -29.4228 -22.1731 0.296316 -0.683194 0.579444 0.331191 2.6697 2.1835 2.9792 -0.00218472 -0.000958894 0.00243349 0.248967 0.210573 -0.240771 4 
179 1 -11.4021 -30.4267 -22.2135 -0.940125 -0.0120952 0.108886 0.322741 2.6697 2.1835 2.9792 -0.000574577 0.0010983 -0.00141072 -0.462701 -0.402275 0.00642435 4 
180 2 -9.69088 -31.2063 -25.2267 -0.830321 -0.205427 -0.504423 0.118005 2.5476 2.5476 1.75175 -0.000301878 0.0023789 0.00112243 0.266407 0.0453027 0.0883187 4 
181 1 -7.29972 -33.8879 -25.1809 0.880822 0.0829789 0.0216615 -0.465615 2.6697 2.1835 2.9792 0.00310895 -0.000273541 -0.00379627 -0.106996 0.312051 0.287516 4 
182 1 -8.42826 -35.3076 -27.9161 0.387543 -0.700279 0.21182 0.560849 2.6697 2.1835 2.9792 -0.00102498 -0.00104959 -0.000384464 -0.141732 -0.213617 0.138087 4 
183 1 -6.70399 -38.318 -29.2757 -0.901665 -0.0857194 -0.0296937 0.422813 2.6697 2.1835 2.9792 0.000303227 0.00164298 0.0021975 0.270919 0.400578 -0.172637 4 
184 2 -8.82953 -40.9949 -28.0345 -0.29057 -0.336656 0.68581 0.576104 2.5476 2.5476 1.75175 0.00164596 0.00107788 0.00316581 -0.263405 -0.0972506 0.121167 4 
185 1 -7.95078 -43.1055 -30.2298 -0.607602 0.694172 -0.385927 0.00226108 2.6697 2.1835 2.9792 0.000132079 0.00319564 0.00157714 0.0721963 -0.298677 -0.340342 4 
186 1 -9.1548 -46.1669 -30.2878 -0.471294 -0.395761 0.629191 0.474736 2.6697 2.1835 2.9792 -0.000755034 0.00180524 -9.31858e-05 0.0925649 0.257875 0.0231182 4 
187 1 -11.7853 -47.0815 -31.9183 -0.284183 0.362995 -0.748928 -0.476006 2.6697 2.1835 2.9792 0.0012031 0.00147315 0.00108149 -0.0414749 0.160008 0.138462 4 