units           real
boundary        p p p
atom_style      hybrid molecular ellipsoid

# Neighbour list.
neighbor        5.0 bin
neigh_modify    check yes

# ----------------- Atom Definition Section -----------------
read_data ${run}.data
read_data 04_cg_sample_01.data
  orthogonal box = (-74.9454 -72.0258 -36.5586) to (74.9454 72.0258 186.559)
  1 by 1 by 2 MPI processor grid
  reading atoms ...
  94995 atoms
  94995 ellipsoids
  reading velocities ...
  94995 velocities
  scanning bonds ...
  1 = max bonds/atom
  reading bonds ...
  16920 bonds
  2 = max # of 1-2 neighbors
  2 = max # of 1-3 neighbors
  4 = max # of 1-4 neighbors
  6 = max # of special neighbors
  special bonds CPU = 0.0103747 secs
  read_data CPU = 0.435064 secs

# Dummy Settings.
mass 1 72.0634
mass 2  58.0366
mass 3 40.4364
pair_style zero 1.
pair_coeff * *

# Define the groups of atoms.
group slab type 1 2
17280 atoms in group slab
group solvent type 3
77715 atoms in group solvent

# Compute the density profile.
compute c1  slab chunk/atom bin/1d z -5.0 4 units box
compute c2  slab chunk/atom bin/1d z -5.5 4 units box
compute c3  slab chunk/atom bin/1d z -6.0 4 units box
compute c4  slab chunk/atom bin/1d z -6.5 4 units box
compute c5  slab chunk/atom bin/1d z -7.0 4 units box
compute c6  slab chunk/atom bin/1d z -7.5 4 units box
compute c7  slab chunk/atom bin/1d z -8.0 4 units box
compute c8  slab chunk/atom bin/1d z -8.5 4 units box
compute c9  solvent chunk/atom bin/1d z -5.0 4 units box
compute c10 solvent chunk/atom bin/1d z -5.5 4 units box
compute c11 solvent chunk/atom bin/1d z -6.0 4 units box
compute c12 solvent chunk/atom bin/1d z -6.5 4 units box
compute c13 solvent chunk/atom bin/1d z -7.0 4 units box
compute c14 solvent chunk/atom bin/1d z -7.5 4 units box
compute c15 solvent chunk/atom bin/1d z -8.0 4 units box
compute c16 solvent chunk/atom bin/1d z -8.5 4 units box

# Average the last 3 frames.
fix f1 all ave/chunk $p $s $d c1 density/mass ave running file ${out}.out1
fix f1 all ave/chunk 10000 $s $d c1 density/mass ave running file ${out}.out1
fix f1 all ave/chunk 10000 3 $d c1 density/mass ave running file ${out}.out1
fix f1 all ave/chunk 10000 3 100000 c1 density/mass ave running file ${out}.out1
fix f1 all ave/chunk 10000 3 100000 c1 density/mass ave running file 09_cg_analysis.out1
fix f2 all ave/chunk $p $s $d c2 density/mass ave running file ${out}.out2
fix f2 all ave/chunk 10000 $s $d c2 density/mass ave running file ${out}.out2
fix f2 all ave/chunk 10000 3 $d c2 density/mass ave running file ${out}.out2
fix f2 all ave/chunk 10000 3 100000 c2 density/mass ave running file ${out}.out2
fix f2 all ave/chunk 10000 3 100000 c2 density/mass ave running file 09_cg_analysis.out2
fix f3 all ave/chunk $p $s $d c3 density/mass ave running file ${out}.out3
fix f3 all ave/chunk 10000 $s $d c3 density/mass ave running file ${out}.out3
fix f3 all ave/chunk 10000 3 $d c3 density/mass ave running file ${out}.out3
fix f3 all ave/chunk 10000 3 100000 c3 density/mass ave running file ${out}.out3
fix f3 all ave/chunk 10000 3 100000 c3 density/mass ave running file 09_cg_analysis.out3
fix f4 all ave/chunk $p $s $d c4 density/mass ave running file ${out}.out4
fix f4 all ave/chunk 10000 $s $d c4 density/mass ave running file ${out}.out4
fix f4 all ave/chunk 10000 3 $d c4 density/mass ave running file ${out}.out4
fix f4 all ave/chunk 10000 3 100000 c4 density/mass ave running file ${out}.out4
fix f4 all ave/chunk 10000 3 100000 c4 density/mass ave running file 09_cg_analysis.out4
fix f5 all ave/chunk $p $s $d c5 density/mass ave running file ${out}.out5
fix f5 all ave/chunk 10000 $s $d c5 density/mass ave running file ${out}.out5
fix f5 all ave/chunk 10000 3 $d c5 density/mass ave running file ${out}.out5
fix f5 all ave/chunk 10000 3 100000 c5 density/mass ave running file ${out}.out5
fix f5 all ave/chunk 10000 3 100000 c5 density/mass ave running file 09_cg_analysis.out5
fix f6 all ave/chunk $p $s $d c6 density/mass ave running file ${out}.out6
fix f6 all ave/chunk 10000 $s $d c6 density/mass ave running file ${out}.out6
fix f6 all ave/chunk 10000 3 $d c6 density/mass ave running file ${out}.out6
fix f6 all ave/chunk 10000 3 100000 c6 density/mass ave running file ${out}.out6
fix f6 all ave/chunk 10000 3 100000 c6 density/mass ave running file 09_cg_analysis.out6
fix f7 all ave/chunk $p $s $d c7 density/mass ave running file ${out}.out7
fix f7 all ave/chunk 10000 $s $d c7 density/mass ave running file ${out}.out7
fix f7 all ave/chunk 10000 3 $d c7 density/mass ave running file ${out}.out7
fix f7 all ave/chunk 10000 3 100000 c7 density/mass ave running file ${out}.out7
fix f7 all ave/chunk 10000 3 100000 c7 density/mass ave running file 09_cg_analysis.out7
fix f8 all ave/chunk $p $s $d c8 density/mass ave running file ${out}.out8
fix f8 all ave/chunk 10000 $s $d c8 density/mass ave running file ${out}.out8
fix f8 all ave/chunk 10000 3 $d c8 density/mass ave running file ${out}.out8
fix f8 all ave/chunk 10000 3 100000 c8 density/mass ave running file ${out}.out8
fix f8 all ave/chunk 10000 3 100000 c8 density/mass ave running file 09_cg_analysis.out8
fix f9 all ave/chunk $p $s $d c9 density/mass ave running file ${out}.out9
fix f9 all ave/chunk 10000 $s $d c9 density/mass ave running file ${out}.out9
fix f9 all ave/chunk 10000 3 $d c9 density/mass ave running file ${out}.out9
fix f9 all ave/chunk 10000 3 100000 c9 density/mass ave running file ${out}.out9
fix f9 all ave/chunk 10000 3 100000 c9 density/mass ave running file 09_cg_analysis.out9
fix f10 all ave/chunk $p $s $d c10 density/mass ave running file ${out}.out10
fix f10 all ave/chunk 10000 $s $d c10 density/mass ave running file ${out}.out10
fix f10 all ave/chunk 10000 3 $d c10 density/mass ave running file ${out}.out10
fix f10 all ave/chunk 10000 3 100000 c10 density/mass ave running file ${out}.out10
fix f10 all ave/chunk 10000 3 100000 c10 density/mass ave running file 09_cg_analysis.out10
fix f11 all ave/chunk $p $s $d c11 density/mass ave running file ${out}.out11
fix f11 all ave/chunk 10000 $s $d c11 density/mass ave running file ${out}.out11
fix f11 all ave/chunk 10000 3 $d c11 density/mass ave running file ${out}.out11
fix f11 all ave/chunk 10000 3 100000 c11 density/mass ave running file ${out}.out11
fix f11 all ave/chunk 10000 3 100000 c11 density/mass ave running file 09_cg_analysis.out11
fix f12 all ave/chunk $p $s $d c12 density/mass ave running file ${out}.out12
fix f12 all ave/chunk 10000 $s $d c12 density/mass ave running file ${out}.out12
fix f12 all ave/chunk 10000 3 $d c12 density/mass ave running file ${out}.out12
fix f12 all ave/chunk 10000 3 100000 c12 density/mass ave running file ${out}.out12
fix f12 all ave/chunk 10000 3 100000 c12 density/mass ave running file 09_cg_analysis.out12
fix f13 all ave/chunk $p $s $d c13 density/mass ave running file ${out}.out13
fix f13 all ave/chunk 10000 $s $d c13 density/mass ave running file ${out}.out13
fix f13 all ave/chunk 10000 3 $d c13 density/mass ave running file ${out}.out13
fix f13 all ave/chunk 10000 3 100000 c13 density/mass ave running file ${out}.out13
fix f13 all ave/chunk 10000 3 100000 c13 density/mass ave running file 09_cg_analysis.out13
fix f14 all ave/chunk $p $s $d c14 density/mass ave running file ${out}.out14
fix f14 all ave/chunk 10000 $s $d c14 density/mass ave running file ${out}.out14
fix f14 all ave/chunk 10000 3 $d c14 density/mass ave running file ${out}.out14
fix f14 all ave/chunk 10000 3 100000 c14 density/mass ave running file ${out}.out14
fix f14 all ave/chunk 10000 3 100000 c14 density/mass ave running file 09_cg_analysis.out14
fix f15 all ave/chunk $p $s $d c15 density/mass ave running file ${out}.out15
fix f15 all ave/chunk 10000 $s $d c15 density/mass ave running file ${out}.out15
fix f15 all ave/chunk 10000 3 $d c15 density/mass ave running file ${out}.out15
fix f15 all ave/chunk 10000 3 100000 c15 density/mass ave running file ${out}.out15
fix f15 all ave/chunk 10000 3 100000 c15 density/mass ave running file 09_cg_analysis.out15
fix f16 all ave/chunk $p $s $d c16 density/mass ave running file ${out}.out16
fix f16 all ave/chunk 10000 $s $d c16 density/mass ave running file ${out}.out16
fix f16 all ave/chunk 10000 3 $d c16 density/mass ave running file ${out}.out16
fix f16 all ave/chunk 10000 3 100000 c16 density/mass ave running file ${out}.out16
fix f16 all ave/chunk 10000 3 100000 c16 density/mass ave running file 09_cg_analysis.out16

# Compute the average box length along z.
variable dz equal lz
fix BOX all ave/time $p $s $d v_dz mode scalar ave running
fix BOX all ave/time 10000 $s $d v_dz mode scalar ave running
fix BOX all ave/time 10000 3 $d v_dz mode scalar ave running
fix BOX all ave/time 10000 3 100000 v_dz mode scalar ave running

# Output.
thermo          1
thermo_style custom step cpu
thermo_modify flush yes

# Analyse the trajectory.
fix 1 all recenter 0 0 110 # Shift the coordinates to have the slab in the center.
rerun ${dumpfile} dump x y z vx vy vz qw qx qy qz angmomx angmomy angmomz box yes
rerun /tmp/fileZQyeq1.dump dump x y z vx vy vz qw qx qy qz angmomx angmomy angmomz box yes
WARNING: Bonds are defined but no bond style is set (../force.cpp:205)
WARNING: Likewise 1-2 special neighbor interactions != 1.0 (../force.cpp:207)
Neighbor list info ...
  update every 1 steps, delay 10 steps, check yes
  max neighbors/atom: 2000, page size: 100000
  master list distance cutoff = 6
  ghost atom cutoff = 6
  binsize = 3, bins = 50 49 75
  1 neighbor lists, perpetual/occasional/extra = 1 0 0
  (1) pair zero, perpetual
      attributes: half, newton on
      pair build: half/bin/newton
      stencil: half/bin/3d/newton
      bin: standard
Per MPI rank memory allocation (min/avg/max) = 43.44 | 54.62 | 65.79 Mbytes
Step CPU 
       0            0 
      17   0.90413244 
   10000    1.3592493 
   20000    1.8425952 
   30000     2.351118 
   40000    2.8315297 
   50000    3.3032417 
   60000    3.7809856 
   70000    4.2513634 
   80000    4.7411465 
   90000    5.2391749 
  100000     5.729295 
Loop time of 5.72933 on 2 procs for 12 steps with 94995 atoms

Performance: 0.181 ns/day, 132.623 hours/ns, 2.094 timesteps/s
92.9% CPU use with 2 MPI tasks x 1 OpenMP threads

MPI task timing breakdown:
Section |  min time  |  avg time  |  max time  |%varavg| %total
---------------------------------------------------------------
Pair    | 0          | 0          | 0          |   0.0 |  0.00
Bond    | 0          | 0          | 0          |   0.0 |  0.00
Neigh   | 0          | 0          | 0          |   0.0 |  0.00
Comm    | 0          | 0          | 0          |   0.0 |  0.00
Output  | 0          | 0          | 0          |   0.0 |  0.00
Modify  | 0          | 0          | 0          |   0.0 |  0.00
Other   |            | 5.729      |            |       |100.00

Nlocal:    47497.5 ave 55581 max 39414 min
Histogram: 1 0 0 0 0 0 0 0 0 1
Nghost:    14766.5 ave 16028 max 13505 min
Histogram: 1 0 0 0 0 0 0 0 0 1
Neighs:    572120 ave 720867 max 423374 min
Histogram: 1 0 0 0 0 0 0 0 0 1

Total # of neighbors = 1144241
Ave neighs/atom = 12.0453
Ave special neighs/atom = 1.04595
Neighbor list builds = 0
Dangerous builds = 0

variable ave equal f_BOX
print "Average Z length: ${ave}"
Average Z length: 182.161735410721

# Merge all output files:
shell bash ../scripts/merge.sh ${out}.out1 ${out}.out2 ${out}.out3 ${out}.out4 ${out}.out5 ${out}.out6 ${out}.out7 ${out}.out8 > ${out}_slab.out
shell bash ../scripts/merge.sh 09_cg_analysis.out1 ${out}.out2 ${out}.out3 ${out}.out4 ${out}.out5 ${out}.out6 ${out}.out7 ${out}.out8 > ${out}_slab.out
shell bash ../scripts/merge.sh 09_cg_analysis.out1 09_cg_analysis.out2 ${out}.out3 ${out}.out4 ${out}.out5 ${out}.out6 ${out}.out7 ${out}.out8 > ${out}_slab.out
shell bash ../scripts/merge.sh 09_cg_analysis.out1 09_cg_analysis.out2 09_cg_analysis.out3 ${out}.out4 ${out}.out5 ${out}.out6 ${out}.out7 ${out}.out8 > ${out}_slab.out
shell bash ../scripts/merge.sh 09_cg_analysis.out1 09_cg_analysis.out2 09_cg_analysis.out3 09_cg_analysis.out4 ${out}.out5 ${out}.out6 ${out}.out7 ${out}.out8 > ${out}_slab.out
shell bash ../scripts/merge.sh 09_cg_analysis.out1 09_cg_analysis.out2 09_cg_analysis.out3 09_cg_analysis.out4 09_cg_analysis.out5 ${out}.out6 ${out}.out7 ${out}.out8 > ${out}_slab.out
shell bash ../scripts/merge.sh 09_cg_analysis.out1 09_cg_analysis.out2 09_cg_analysis.out3 09_cg_analysis.out4 09_cg_analysis.out5 09_cg_analysis.out6 ${out}.out7 ${out}.out8 > ${out}_slab.out
shell bash ../scripts/merge.sh 09_cg_analysis.out1 09_cg_analysis.out2 09_cg_analysis.out3 09_cg_analysis.out4 09_cg_analysis.out5 09_cg_analysis.out6 09_cg_analysis.out7 ${out}.out8 > ${out}_slab.out
shell bash ../scripts/merge.sh 09_cg_analysis.out1 09_cg_analysis.out2 09_cg_analysis.out3 09_cg_analysis.out4 09_cg_analysis.out5 09_cg_analysis.out6 09_cg_analysis.out7 09_cg_analysis.out8 > ${out}_slab.out
shell bash ../scripts/merge.sh 09_cg_analysis.out1 09_cg_analysis.out2 09_cg_analysis.out3 09_cg_analysis.out4 09_cg_analysis.out5 09_cg_analysis.out6 09_cg_analysis.out7 09_cg_analysis.out8 > 09_cg_analysis_slab.out
shell bash ../scripts/merge.sh ${out}.out9 ${out}.out10 ${out}.out11 ${out}.out12 ${out}.out13 ${out}.out14 ${out}.out15 ${out}.out16 > ${out}_solvent.out
shell bash ../scripts/merge.sh 09_cg_analysis.out9 ${out}.out10 ${out}.out11 ${out}.out12 ${out}.out13 ${out}.out14 ${out}.out15 ${out}.out16 > ${out}_solvent.out
shell bash ../scripts/merge.sh 09_cg_analysis.out9 09_cg_analysis.out10 ${out}.out11 ${out}.out12 ${out}.out13 ${out}.out14 ${out}.out15 ${out}.out16 > ${out}_solvent.out
shell bash ../scripts/merge.sh 09_cg_analysis.out9 09_cg_analysis.out10 09_cg_analysis.out11 ${out}.out12 ${out}.out13 ${out}.out14 ${out}.out15 ${out}.out16 > ${out}_solvent.out
shell bash ../scripts/merge.sh 09_cg_analysis.out9 09_cg_analysis.out10 09_cg_analysis.out11 09_cg_analysis.out12 ${out}.out13 ${out}.out14 ${out}.out15 ${out}.out16 > ${out}_solvent.out
shell bash ../scripts/merge.sh 09_cg_analysis.out9 09_cg_analysis.out10 09_cg_analysis.out11 09_cg_analysis.out12 09_cg_analysis.out13 ${out}.out14 ${out}.out15 ${out}.out16 > ${out}_solvent.out
shell bash ../scripts/merge.sh 09_cg_analysis.out9 09_cg_analysis.out10 09_cg_analysis.out11 09_cg_analysis.out12 09_cg_analysis.out13 09_cg_analysis.out14 ${out}.out15 ${out}.out16 > ${out}_solvent.out
shell bash ../scripts/merge.sh 09_cg_analysis.out9 09_cg_analysis.out10 09_cg_analysis.out11 09_cg_analysis.out12 09_cg_analysis.out13 09_cg_analysis.out14 09_cg_analysis.out15 ${out}.out16 > ${out}_solvent.out
shell bash ../scripts/merge.sh 09_cg_analysis.out9 09_cg_analysis.out10 09_cg_analysis.out11 09_cg_analysis.out12 09_cg_analysis.out13 09_cg_analysis.out14 09_cg_analysis.out15 09_cg_analysis.out16 > ${out}_solvent.out
shell bash ../scripts/merge.sh 09_cg_analysis.out9 09_cg_analysis.out10 09_cg_analysis.out11 09_cg_analysis.out12 09_cg_analysis.out13 09_cg_analysis.out14 09_cg_analysis.out15 09_cg_analysis.out16 > 09_cg_analysis_solvent.out

shell rm -f ${out}.out1 ${out}.out2 ${out}.out3 ${out}.out4 ${out}.out5 ${out}.out6 ${out}.out7 ${out}.out8 ${out}.out9 ${out}.out10 ${out}.out11 ${out}.out12 ${out}.out13 ${out}.out14 ${out}.out15 ${out}.out16
shell rm -f 09_cg_analysis.out1 ${out}.out2 ${out}.out3 ${out}.out4 ${out}.out5 ${out}.out6 ${out}.out7 ${out}.out8 ${out}.out9 ${out}.out10 ${out}.out11 ${out}.out12 ${out}.out13 ${out}.out14 ${out}.out15 ${out}.out16
shell rm -f 09_cg_analysis.out1 09_cg_analysis.out2 ${out}.out3 ${out}.out4 ${out}.out5 ${out}.out6 ${out}.out7 ${out}.out8 ${out}.out9 ${out}.out10 ${out}.out11 ${out}.out12 ${out}.out13 ${out}.out14 ${out}.out15 ${out}.out16
shell rm -f 09_cg_analysis.out1 09_cg_analysis.out2 09_cg_analysis.out3 ${out}.out4 ${out}.out5 ${out}.out6 ${out}.out7 ${out}.out8 ${out}.out9 ${out}.out10 ${out}.out11 ${out}.out12 ${out}.out13 ${out}.out14 ${out}.out15 ${out}.out16
shell rm -f 09_cg_analysis.out1 09_cg_analysis.out2 09_cg_analysis.out3 09_cg_analysis.out4 ${out}.out5 ${out}.out6 ${out}.out7 ${out}.out8 ${out}.out9 ${out}.out10 ${out}.out11 ${out}.out12 ${out}.out13 ${out}.out14 ${out}.out15 ${out}.out16
shell rm -f 09_cg_analysis.out1 09_cg_analysis.out2 09_cg_analysis.out3 09_cg_analysis.out4 09_cg_analysis.out5 ${out}.out6 ${out}.out7 ${out}.out8 ${out}.out9 ${out}.out10 ${out}.out11 ${out}.out12 ${out}.out13 ${out}.out14 ${out}.out15 ${out}.out16
shell rm -f 09_cg_analysis.out1 09_cg_analysis.out2 09_cg_analysis.out3 09_cg_analysis.out4 09_cg_analysis.out5 09_cg_analysis.out6 ${out}.out7 ${out}.out8 ${out}.out9 ${out}.out10 ${out}.out11 ${out}.out12 ${out}.out13 ${out}.out14 ${out}.out15 ${out}.out16
shell rm -f 09_cg_analysis.out1 09_cg_analysis.out2 09_cg_analysis.out3 09_cg_analysis.out4 09_cg_analysis.out5 09_cg_analysis.out6 09_cg_analysis.out7 ${out}.out8 ${out}.out9 ${out}.out10 ${out}.out11 ${out}.out12 ${out}.out13 ${out}.out14 ${out}.out15 ${out}.out16
shell rm -f 09_cg_analysis.out1 09_cg_analysis.out2 09_cg_analysis.out3 09_cg_analysis.out4 09_cg_analysis.out5 09_cg_analysis.out6 09_cg_analysis.out7 09_cg_analysis.out8 ${out}.out9 ${out}.out10 ${out}.out11 ${out}.out12 ${out}.out13 ${out}.out14 ${out}.out15 ${out}.out16
shell rm -f 09_cg_analysis.out1 09_cg_analysis.out2 09_cg_analysis.out3 09_cg_analysis.out4 09_cg_analysis.out5 09_cg_analysis.out6 09_cg_analysis.out7 09_cg_analysis.out8 09_cg_analysis.out9 ${out}.out10 ${out}.out11 ${out}.out12 ${out}.out13 ${out}.out14 ${out}.out15 ${out}.out16
shell rm -f 09_cg_analysis.out1 09_cg_analysis.out2 09_cg_analysis.out3 09_cg_analysis.out4 09_cg_analysis.out5 09_cg_analysis.out6 09_cg_analysis.out7 09_cg_analysis.out8 09_cg_analysis.out9 09_cg_analysis.out10 ${out}.out11 ${out}.out12 ${out}.out13 ${out}.out14 ${out}.out15 ${out}.out16
shell rm -f 09_cg_analysis.out1 09_cg_analysis.out2 09_cg_analysis.out3 09_cg_analysis.out4 09_cg_analysis.out5 09_cg_analysis.out6 09_cg_analysis.out7 09_cg_analysis.out8 09_cg_analysis.out9 09_cg_analysis.out10 09_cg_analysis.out11 ${out}.out12 ${out}.out13 ${out}.out14 ${out}.out15 ${out}.out16
shell rm -f 09_cg_analysis.out1 09_cg_analysis.out2 09_cg_analysis.out3 09_cg_analysis.out4 09_cg_analysis.out5 09_cg_analysis.out6 09_cg_analysis.out7 09_cg_analysis.out8 09_cg_analysis.out9 09_cg_analysis.out10 09_cg_analysis.out11 09_cg_analysis.out12 ${out}.out13 ${out}.out14 ${out}.out15 ${out}.out16
shell rm -f 09_cg_analysis.out1 09_cg_analysis.out2 09_cg_analysis.out3 09_cg_analysis.out4 09_cg_analysis.out5 09_cg_analysis.out6 09_cg_analysis.out7 09_cg_analysis.out8 09_cg_analysis.out9 09_cg_analysis.out10 09_cg_analysis.out11 09_cg_analysis.out12 09_cg_analysis.out13 ${out}.out14 ${out}.out15 ${out}.out16
shell rm -f 09_cg_analysis.out1 09_cg_analysis.out2 09_cg_analysis.out3 09_cg_analysis.out4 09_cg_analysis.out5 09_cg_analysis.out6 09_cg_analysis.out7 09_cg_analysis.out8 09_cg_analysis.out9 09_cg_analysis.out10 09_cg_analysis.out11 09_cg_analysis.out12 09_cg_analysis.out13 09_cg_analysis.out14 ${out}.out15 ${out}.out16
shell rm -f 09_cg_analysis.out1 09_cg_analysis.out2 09_cg_analysis.out3 09_cg_analysis.out4 09_cg_analysis.out5 09_cg_analysis.out6 09_cg_analysis.out7 09_cg_analysis.out8 09_cg_analysis.out9 09_cg_analysis.out10 09_cg_analysis.out11 09_cg_analysis.out12 09_cg_analysis.out13 09_cg_analysis.out14 09_cg_analysis.out15 ${out}.out16
shell rm -f 09_cg_analysis.out1 09_cg_analysis.out2 09_cg_analysis.out3 09_cg_analysis.out4 09_cg_analysis.out5 09_cg_analysis.out6 09_cg_analysis.out7 09_cg_analysis.out8 09_cg_analysis.out9 09_cg_analysis.out10 09_cg_analysis.out11 09_cg_analysis.out12 09_cg_analysis.out13 09_cg_analysis.out14 09_cg_analysis.out15 09_cg_analysis.out16
WARNING: Shell command 'rm' failed with error 'No such file or directory' (../input.cpp:1313)
Total wall time: 0:00:06
