ITEM: TIMESTEP
530000
ITEM: NUMBER OF ATOMS
512
ITEM: BOX BOUNDS pp pp pp
-12.437 12.437
-12.437 12.437
-12.437 12.437
ITEM: ATOMS id type xu yu zu c_q[1] c_q[2] c_q[3] c_q[4] c_shape[1] c_shape[2] c_shape[3] vx vy vz angmomx angmomy angmomz mol 
     1 1     11.07611     -2.15772     -1.07319    -0.553483     0.753969     0.148797     0.321009     1.579450     1.579450     1.579450     0.006268    -0.007016    -0.002578    -0.083620     0.012447    -0.087085     1
     2 1     -4.53403      4.38844     -2.68447     0.040818     0.577339     0.698355    -0.421086     1.579450     1.579450     1.579450    -0.001013    -0.004834    -0.002609    -0.018648    -0.019936    -0.109565     2
     3 1     10.77808     -0.34289     -5.84963     0.324364    -0.902577    -0.273878    -0.071646     1.579450     1.579450     1.579450    -0.003471     0.003549     0.001761     0.000418     0.033897    -0.002313     3
     4 1     -4.98151      7.09881      5.67341     0.322125     0.936301     0.139643     0.008667     1.579450     1.579450     1.579450    -0.000020     0.006357    -0.002853     0.009541     0.074875    -0.013397     4
     5 1      8.22049      2.41727     -4.91064    -0.040961    -0.245284     0.968193     0.027584     1.579450     1.579450     1.579450     0.001796     0.002051    -0.000282    -0.091578     0.088591     0.055805     5
     6 1     12.06951      8.92151     -7.89213    -0.496564    -0.259973     0.770883    -0.302619     1.579450     1.579450     1.579450     0.004934     0.001237     0.002073    -0.020062    -0.055507     0.121206     6
     7 1      0.57682      4.86851    -11.79457    -0.636025    -0.188932     0.292045    -0.688830     1.579450     1.579450     1.579450     0.004323     0.001527    -0.000855    -0.061083     0.064081     0.013222     7
     8 1     -9.24918     -5.88359     -0.93958    -0.412632    -0.676308    -0.397458     0.463000     1.579450     1.579450     1.579450     0.009311     0.005261     0.001337     0.044066     0.001096    -0.021183     8
     9 1     -0.20982      9.56309      6.33637    -0.774210    -0.623613     0.091193    -0.058222     1.579450     1.579450     1.579450     0.004463    -0.002789     0.006796     0.046829    -0.058932     0.016414     9
    10 1      7.61129      8.55341     -4.58723    -0.378859    -0.524522     0.745585     0.159515     1.579450     1.579450     1.579450     0.003014     0.000307     0.005852    -0.006617     0.006576     0.056764    10
    11 1      7.37601     -9.62119     10.63771     0.036742     0.625539     0.772763    -0.100934     1.579450     1.579450     1.579450     0.001710     0.002644     0.000647     0.060040    -0.073297     0.106736    11
    12 1     -9.87487      7.83703     -1.17069     0.477176     0.716872     0.453216    -0.230199     1.579450     1.579450     1.579450    -0.010331    -0.002738     0.004965     0.002074     0.125491    -0.008356    12
    13 1     -1.07227     -4.34219      3.93921    -0.866074     0.344162    -0.361183    -0.031863     1.579450     1.579450     1.579450    -0.002994    -0.004865    -0.000499    -0.197431     0.075415    -0.008037    13
    14 1      9.80529      0.38191     -1.12778    -0.343808    -0.902106     0.089940     0.244769     1.579450     1.579450     1.579450    -0.004315    -0.001708    -0.005167     0.075855    -0.020546    -0.038684    14
    15 1     -2.57929     11.96319      9.49831     0.870136     0.387201    -0.293317    -0.083086     1.579450     1.579450     1.579450     0.001034    -0.006923     0.003422     0.064692    -0.083974     0.006129    15
    16 1     -0.58831     -1.19387      4.57542     0.115561    -0.342854     0.418510     0.833034     1.579450     1.579450     1.579450     0.003773     0.009728    -0.003747    -0.083443     0.111814    -0.004255    16
    17 1      0.26422      0.34054     -8.25369     0.280961     0.194152    -0.858989     0.381450     1.579450     1.579450     1.579450     0.001240     0.000870     0.002839     0.073661     0.122422     0.011036    17
    18 1      8.34992      8.32072     -8.46692     0.754839    -0.215216    -0.077947    -0.614674     1.579450     1.579450     1.579450    -0.008417    -0.006803    -0.002152    -0.051857     0.046543    -0.048167    18
    19 1      4.33716      3.18738      3.79381    -0.734912    -0.644645    -0.189655     0.091476     1.579450     1.579450     1.579450     0.002003     0.005831     0.000731    -0.022034     0.033576     0.036743    19
    20 1     -3.81866     11.73412      6.72232     0.746327     0.534161    -0.370415     0.143045     1.579450     1.579450     1.579450     0.004546     0.000149    -0.000760     0.034721    -0.028097    -0.075622    20
    21 1      7.41929     -1.29002    -11.11317     0.266868    -0.231322    -0.889113    -0.291118     1.579450     1.579450     1.579450    -0.004975    -0.006291    -0.002192    -0.048418    -0.042706    -0.130954    21
    22 1      8.76409     -7.09851      9.86503    -0.757475    -0.212890     0.564084    -0.250437     1.579450     1.579450     1.579450    -0.000738    -0.004389     0.003210    -0.011807    -0.078699     0.033697    22
    23 1    -10.20298      8.10421    -10.42499     0.329830     0.434468    -0.052323    -0.836488     1.579450     1.579450     1.579450    -0.002918     0.000660     0.000225     0.044318     0.055366    -0.100002    23
    24 1    -10.06739      5.14383    -10.60880    -0.292829    -0.912772    -0.238606     0.155453     1.579450     1.579450     1.579450    -0.004568     0.001946    -0.001278     0.116036     0.147028    -0.028596    24
    25 1      0.41411     -7.29857      5.85821     0.416440     0.012757    -0.816806     0.399052     1.579450     1.579450     1.579450     0.000248    -0.004452     0.000421    -0.083646    -0.006512     0.050646    25
    26 1     -3.86071     11.85491     -3.12159     0.937338    -0.276664    -0.003954    -0.211751     1.579450     1.579450     1.579450    -0.005211     0.008118     0.001835     0.042301    -0.016967    -0.030221    26
    27 1      4.88792      6.78991     -2.86874    -0.304096    -0.629270     0.107018    -0.707172     1.579450     1.579450     1.579450     0.001314    -0.001799     0.006433    -0.005103     0.033716     0.037459    27
    28 1     10.16350     -8.66773     -2.65100    -0.483215    -0.826463    -0.061037    -0.282377     1.579450     1.579450     1.579450    -0.005618    -0.001693    -0.002044    -0.056944     0.005911    -0.010667    28
    29 1     -3.50978     -5.74287      1.19943    -0.185083     0.089395     0.736615     0.644323     1.579450     1.579450     1.579450    -0.006252    -0.000847    -0.002507    -0.015477     0.035193     0.115344    29
    30 1     -8.80919      3.13481     -5.35781     0.009911    -0.333268    -0.104741    -0.936944     1.579450     1.579450     1.579450     0.005738     0.001500     0.002131     0.049698     0.081175    -0.013801    30
    31 1      7.75342     -2.93809     -9.02708    -0.369072     0.469192     0.371352    -0.711156     1.579450     1.579450     1.579450     0.000945    -0.000564     0.000188     0.091790    -0.007776    -0.036011    31
    32 1     -3.02919    -11.41378     -0.07288     0.956308    -0.163562    -0.239830     0.034687     1.579450     1.579450     1.579450     0.003974    -0.003051    -0.003502    -0.085342    -0.004195     0.058290    32
    33 1     -8.47709     -1.29447      8.04801    -0.361652    -0.787757     0.157370    -0.473161     1.579450     1.579450     1.579450    -0.007029     0.002526    -0.000912    -0.059753    -0.081547     0.157658    33
    34 1     -5.17988    -12.10808     -8.42199    -0.153703    -0.784549    -0.323766    -0.505998     1.579450     1.579450     1.579450     0.000447     0.001383     0.002534     0.063345     0.029153    -0.096338    34
    35 1     -0.42349     -1.58648      8.15332    -0.278610     0.881019    -0.343070    -0.168775     1.579450     1.579450     1.579450     0.002354    -0.002630     0.003674     0.074737     0.015671    -0.075084    35
    36 1    -11.24918     -3.02781     -3.89948    -0.344339    -0.728650     0.581626    -0.110503     1.579450     1.579450     1.579450    -0.003410     0.001069    -0.006104    -0.010825     0.088391    -0.075771    36
    37 1      8.49439     -1.00801     10.29569     0.300165    -0.074694     0.907969     0.282690     1.579450     1.579450     1.579450     0.003566     0.001963     0.005899    -0.152244     0.045460    -0.086417    37
    38 1      6.80932      6.92223      6.18653     0.118553     0.452163    -0.680544    -0.564228     1.579450     1.579450     1.579450     0.002100    -0.002120    -0.002279    -0.008171    -0.041221    -0.028771    38
    39 1    -10.93859    -11.93380     -1.75544     0.489901     0.825389    -0.176850    -0.217840     1.579450     1.579450     1.579450    -0.003697    -0.001231     0.003743     0.107874    -0.125092     0.067516    39
    40 1     -7.17167     -3.80967      5.17093     0.716039    -0.081092    -0.458678    -0.519930     1.579450     1.579450     1.579450    -0.001865    -0.002235     0.003269     0.034710    -0.135884     0.147071    40
    41 1     -4.85718     -9.30915      2.76639     0.285871     0.305605     0.343417     0.840802     1.579450     1.579450     1.579450    -0.000961     0.001974     0.001552    -0.022479    -0.029324     0.049993    41
    42 1    -10.12708      0.73512      4.42229     0.356732     0.007882    -0.879895    -0.313791     1.579450     1.579450     1.579450     0.002744    -0.002959     0.000081    -0.039646     0.111183     0.050762    42
    43 1      7.23819     -5.92356      2.36608    -0.533723    -0.308682     0.775795    -0.134156     1.579450     1.579450     1.579450     0.000167    -0.000125     0.003316     0.073280     0.009811    -0.050459    43
    44 1     -2.19714      2.67821     -3.92527    -0.706049     0.278697     0.650108     0.034400     1.579450     1.579450     1.579450    -0.001333    -0.001368     0.003126     0.070021     0.096410     0.015819    44
    45 1     11.99589      8.00023    -11.86710     0.434102     0.419507     0.692789    -0.394478     1.579450     1.579450     1.579450    -0.006484    -0.001657     0.000457    -0.028759    -0.062938     0.104031    45
    46 1     -6.18021      5.73289     -7.97959     0.595146     0.349609    -0.709592    -0.141616     1.579450     1.579450     1.579450     0.001856    -0.002274     0.002612    -0.030646     0.054792    -0.139467    46
    47 1     -4.33928      0.70942     12.40392    -0.532934     0.518162     0.380493    -0.550194     1.579450     1.579450     1.579450     0.005518    -0.000907    -0.003490    -0.081439    -0.046533    -0.084998    47
    48 1    -12.01068      5.16963     -1.73095     0.274797     0.199720    -0.926045    -0.164434     1.579450     1.579450     1.579450    -0.002600    -0.004997     0.001736    -0.030192     0.006853    -0.044367    48
    49 1     -5.31007     -2.89769     -0.85769     0.736875    -0.550878    -0.106535    -0.377094     1.579450     1.579450     1.579450    -0.002962     0.000331    -0.001028     0.077990     0.072897    -0.044947    49
    50 1      2.70419    -10.07729     -7.94188     0.557068    -0.566574     0.597229    -0.109484     1.579450     1.579450     1.579450    -0.004624    -0.002077    -0.000294    -0.013871    -0.065171    -0.037718    50
    51 1    -10.74051      8.93102     -3.85027    -0.154816     0.574350     0.274484     0.755521     1.579450     1.579450     1.579450    -0.000761     0.003380    -0.003790     0.096768    -0.068456    -0.035511    51
    52 1    -10.10869     -5.95993     -9.27689     0.077309    -0.316102    -0.943985     0.054730     1.579450     1.579450     1.579450    -0.001451     0.001089    -0.000491    -0.137816     0.087032    -0.130836    52
    53 1     10.18049      2.94604      9.34371    -0.258766     0.739059    -0.169537     0.598406     1.579450     1.579450     1.579450    -0.005881    -0.003271     0.002156     0.071209     0.037526    -0.050162    53
    54 1    -10.13201     10.71209      7.22713    -0.129511     0.698566     0.579128    -0.399805     1.579450     1.579450     1.579450     0.001273    -0.007249    -0.002052    -0.010984    -0.107324     0.078582    54
    55 1      6.94562      9.17932      0.49918    -0.359327    -0.800460     0.428828     0.215067     1.579450     1.579450     1.579450     0.004039     0.000807     0.000253    -0.003307     0.085510    -0.008613    55
    56 1      5.33906     -1.99838     -4.81662    -0.950202     0.139914    -0.253682     0.114831     1.579450     1.579450     1.579450    -0.005300     0.006860    -0.002376    -0.022198     0.073274     0.034837    56
    57 1     -5.78001     -4.61469      7.46112    -0.300061    -0.651147    -0.322624    -0.617968     1.579450     1.579450     1.579450    -0.001224    -0.006628     0.002459    -0.095366    -0.002177    -0.040622    57
    58 1      5.08057     10.26232     -9.66273    -0.740125    -0.027300    -0.486785     0.463153     1.579450     1.579450     1.579450     0.002549     0.002476    -0.000270    -0.139361     0.086712    -0.088730    58
    59 1     10.66131      6.44532     -7.86108     0.169205     0.773989     0.609185    -0.034693     1.579450     1.579450     1.579450     0.000721    -0.001367     0.002600    -0.023342    -0.104354     0.065134    59
    60 1     10.54639      1.53493      6.50062    -0.142367    -0.369543    -0.917716     0.031099     1.579450     1.579450     1.579450     0.001386    -0.002542     0.003241     0.081692     0.145081     0.073322    60
    61 1      7.37767      8.70152      8.48421     0.891825    -0.002063     0.410056     0.191047     1.579450     1.579450     1.579450     0.000080    -0.004694    -0.002486     0.006713     0.033317     0.043528    61
    62 1    -12.36221    -10.58440     11.81842    -0.760309    -0.197366    -0.433128     0.442014     1.579450     1.579450     1.579450    -0.000031     0.002408     0.004016     0.102178     0.000317     0.120899    62
    63 1     -9.29187     -9.66618      5.41258     0.779135     0.040556    -0.606318     0.153891     1.579450     1.579450     1.579450    -0.004354     0.005460     0.010488    -0.099147    -0.034057     0.067077    63
    64 1     -7.17942      5.73161     -5.36898     0.244944     0.435548    -0.451895    -0.738980     1.579450     1.579450     1.579450    -0.001100     0.005150     0.005852    -0.000494     0.038666     0.077455    64
    65 1      5.64031     -7.54779     -6.38851     0.556859    -0.802782    -0.202114    -0.067818     1.579450     1.579450     1.579450    -0.004542     0.001773     0.002184     0.001477    -0.060646     0.013913    65
    66 1      1.55688      6.34389      3.57447    -0.472706     0.000690     0.648752     0.596380     1.579450     1.579450     1.579450    -0.003227     0.001885    -0.009654    -0.019405    -0.027943     0.004673    66
    67 1     -1.48627      7.55876     -1.61444    -0.141128     0.195537    -0.819932    -0.519192     1.579450     1.579450     1.579450     0.000955     0.003314    -0.000623     0.001040     0.053340    -0.009410    67
    68 1      3.11211      0.09151     -2.36445     0.433512     0.588123    -0.101408     0.675200     1.579450     1.579450     1.579450     0.006741    -0.005191    -0.005909     0.025359     0.029037     0.022926    68
    69 1    -11.56248     -6.69073      1.13611    -0.958905    -0.201970    -0.051366    -0.192540     1.579450     1.579450     1.579450     0.004693    -0.000292     0.001501     0.009445    -0.011189     0.121183    69
    70 1     -3.84629    -11.37449    -10.59447    -0.114855    -0.408808    -0.319377    -0.847162     1.579450     1.579450     1.579450    -0.001988     0.003918     0.006129    -0.042304     0.022262     0.056309    70
    71 1      1.36447     -7.08907     -7.12891     0.702459    -0.447165     0.272054     0.482267     1.579450     1.579450     1.579450    -0.000653    -0.001145     0.000572     0.106874     0.036825     0.006010    71
    72 1     -0.42188    -11.18910     -6.11790    -0.777819    -0.389583    -0.075355     0.487385     1.579450     1.579450     1.579450    -0.005471    -0.001342     0.000752     0.029835     0.050795     0.067161    72
    73 1     -6.98041      8.23589      2.15822     0.487215    -0.356052    -0.213668     0.768241     1.579450     1.579450     1.579450    -0.006883    -0.005219     0.003641    -0.117419    -0.218382    -0.025195    73
    74 1      9.88091     -5.91069     -2.69561     0.409406     0.369070     0.061969     0.832066     1.579450     1.579450     1.579450     0.003317     0.002002    -0.000567    -0.019411    -0.057567     0.009088    74
    75 1     -0.11619     -5.66859     -3.34351     0.840568    -0.481721    -0.199978    -0.146282     1.579450     1.579450     1.579450    -0.005952    -0.000984    -0.001357    -0.075304    -0.043294    -0.106847    75
    76 1      8.44518      5.80128    -11.44167     0.438050     0.512624     0.699261     0.237409     1.579450     1.579450     1.579450     0.000333     0.001927     0.010273    -0.029378    -0.017795     0.113307    76
    77 1     -6.45349     10.88838     -5.65937    -0.392102    -0.203727     0.837499     0.321476     1.579450     1.579450     1.579450     0.002162    -0.010907     0.004907    -0.095789     0.046942     0.004687    77
    78 1     12.10304      9.64738      4.14962    -0.056749     0.113806    -0.986520     0.102982     1.579450     1.579450     1.579450    -0.003722    -0.000485    -0.000749     0.062308    -0.112504    -0.019951    78
    79 1     10.84480     -4.08748      5.53678     0.113799    -0.044500     0.742540    -0.658562     1.579450     1.579450     1.579450    -0.006462    -0.004944    -0.006181     0.047134    -0.044072     0.063597    79
    80 1    -10.64028    -10.82577      2.57182     0.951510     0.043558     0.156612    -0.261161     1.579450     1.579450     1.579450     0.004952     0.003442    -0.000915    -0.015504     0.024915    -0.065447    80
    81 1      1.39839    -10.22109      3.41542    -0.399408     0.425941     0.811667     0.015624     1.579450     1.579450     1.579450    -0.006629     0.002745     0.001351    -0.011932     0.041612     0.080290    81
    82 1      8.77734      7.34151      4.16282    -0.240335     0.673375    -0.356167    -0.601623     1.579450     1.579450     1.579450    -0.005250     0.003833    -0.003011    -0.040942     0.041240    -0.005077    82
    83 1     12.42572    -11.31210      0.65611     0.685459     0.711513     0.061830     0.141679     1.579450     1.579450     1.579450    -0.000841     0.004519    -0.000748    -0.135327    -0.050266     0.052778    83
    84 1      7.19311    -11.99358     -8.59265     0.748745     0.041662     0.640010     0.167426     1.579450     1.579450     1.579450    -0.001470     0.003790     0.000519     0.009213     0.038565     0.009157    84
    85 1     -6.76891      9.06751      4.76878    -0.271095     0.802130     0.061527     0.528497     1.579450     1.579450     1.579450    -0.000264     0.003196    -0.000769     0.047180    -0.037920    -0.045804    85
    86 1      2.50141      2.68401      8.34635     0.413134     0.748285     0.431869     0.287887     1.579450     1.579450     1.579450     0.002892    -0.001501    -0.001834    -0.033543     0.001936    -0.012208    86
    87 1     -4.50429     -3.53948    -11.37927     0.554094     0.088944     0.805859    -0.188837     1.579450     1.579450     1.579450     0.001192     0.004045    -0.002380     0.060318    -0.002724    -0.030193    87
    88 1     -5.54038      2.46772     -4.13648     0.837424     0.371632    -0.045044     0.398223     1.579450     1.579450     1.579450    -0.004974     0.004321    -0.008370     0.050081    -0.107161    -0.023367    88
    89 1     -8.49539     10.63630      9.75977    -0.724218     0.331167    -0.553711    -0.243393     1.579450     1.579450     1.579450     0.003890    -0.001117    -0.000335    -0.013745     0.017127     0.083624    89
    90 1      3.65668      8.14264      3.27168     0.832872     0.268873    -0.471434    -0.108544     1.579450     1.579450     1.579450    -0.000501     0.000712    -0.006689     0.032329    -0.071187    -0.039787    90
    91 1     -4.93557      4.44592    -11.35820     0.122736     0.095149     0.472638     0.867465     1.579450     1.579450     1.579450    -0.002638     0.004416     0.001651     0.008359     0.098019     0.050338    91
    92 1      5.81191     -6.88268     -1.71279    -0.302108     0.490764    -0.432976     0.693119     1.579450     1.579450     1.579450    -0.005765     0.000314    -0.000928     0.048539    -0.055721     0.081324    92
    93 1      6.83087     -9.85217    -10.29869     0.342045    -0.043038     0.625955    -0.699523     1.579450     1.579450     1.579450    -0.003174     0.004233    -0.005789     0.041400    -0.015166     0.090402    93
    94 1     10.13411      8.21385     -3.59119    -0.579308     0.784968    -0.218697     0.019966     1.579450     1.579450     1.579450    -0.002785     0.000749    -0.000070    -0.036960    -0.010452    -0.023635    94
    95 1      9.15861     10.21572      3.65412    -0.463616    -0.523549    -0.284425    -0.655789     1.579450     1.579450     1.579450    -0.003701    -0.000903    -0.000963    -0.057161    -0.000379     0.018021    95
    96 1      9.64800    -11.19759     11.90561     0.196709    -0.333432    -0.895154    -0.220972     1.579450     1.579450     1.579450     0.005663     0.005118    -0.000193     0.003318     0.063735     0.078236    96
    97 1    -10.02409      8.94509      2.98377    -0.227333     0.899317    -0.327554    -0.179602     1.579450     1.579450     1.579450    -0.000532     0.003539    -0.006400     0.062603     0.075496     0.084610    97
    98 1    -10.45480      1.25728     -4.22428     0.625824    -0.036487     0.456221     0.631565     1.579450     1.579450     1.579450     0.003368     0.000309     0.000837    -0.160118     0.009914    -0.106325    98
    99 1     -9.03658    -11.51507    -12.38378     0.221342     0.747691    -0.441827    -0.443570     1.579450     1.579450     1.579450     0.003099    -0.001056    -0.000417    -0.039246     0.020402     0.032703    99
   100 1     -7.03671      5.21575      9.71168     0.804443    -0.012904     0.206839     0.556707     1.579450     1.579450     1.579450     0.002504    -0.003178    -0.003085     0.025937     0.046575    -0.108787   100
   101 1      5.32911     -8.68679      2.79293     0.224890    -0.263548    -0.256228    -0.902394     1.579450     1.579450     1.579450     0.004275     0.004630     0.000112     0.031258     0.049586     0.086197   101
   102 1     -7.63481      5.17318      1.52304    -0.337657     0.468777     0.111561     0.808573     1.579450     1.579450     1.579450    -0.002772     0.001972     0.004253     0.056425    -0.060572    -0.032558   102
   103 1      7.40709     -3.23739     11.53230     0.846179     0.078176     0.511114     0.128966     1.579450     1.579450     1.579450    -0.003159    -0.001434     0.002917    -0.052975     0.076358     0.113519   103
   104 1      4.19002      0.48164     12.11122     0.964057     0.074112     0.201822    -0.156107     1.579450     1.579450     1.579450     0.002940     0.004536     0.002725     0.028955    -0.056870     0.049699   104
   105 1     11.57902     -8.82536     -0.13771     0.542550    -0.178273    -0.098826    -0.814918     1.579450     1.579450     1.579450     0.000384     0.005858     0.002583     0.091172    -0.044792    -0.037764   105
   106 1     -2.65981     -6.70794     11.36690    -0.651121     0.051864     0.675583     0.341963     1.579450     1.579450     1.579450    -0.000450    -0.002345     0.003628    -0.017796    -0.020237     0.022093   106
   107 1     -4.19321      1.31539      9.46662    -0.789921     0.030843     0.445105    -0.420660     1.579450     1.579450     1.579450    -0.002680     0.002432    -0.000894     0.204535    -0.108949     0.077475   107
   108 1      8.72712      4.31611     -8.80412     0.043668     0.212723    -0.941173    -0.258913     1.579450     1.579450     1.579450    -0.003709     0.002992     0.002143     0.082911    -0.070638    -0.001934   108
   109 1     10.94850     11.88733      6.40201    -0.525289     0.447087     0.380855     0.615739     1.579450     1.579450     1.579450    -0.001380     0.000347     0.006558    -0.100652     0.001378    -0.085738   109
   110 1      2.30372     -5.18961     -9.44381    -0.883487    -0.197824     0.124509     0.405973     1.579450     1.579450     1.579450     0.002625    -0.000957    -0.001345    -0.086774    -0.119450     0.079534   110
   111 1     -7.20462      1.03604     -6.32322     0.357676     0.490169     0.589095    -0.533637     1.579450     1.579450     1.579450    -0.000671    -0.003704     0.003892     0.066440     0.058576    -0.051711   111
   112 1     -8.97386      1.51500      8.47751     0.466640    -0.242470     0.209998    -0.824230     1.579450     1.579450     1.579450     0.002534    -0.004141    -0.006497     0.063720    -0.036081    -0.011706   112
   113 1      8.28253     -5.67290     12.13633     0.346300     0.518318    -0.781068     0.036823     1.579450     1.579450     1.579450    -0.000520     0.003072     0.006352    -0.038537     0.030675    -0.108350   113
   114 1     -8.80795      8.56137      6.42567    -0.128009     0.288959    -0.504345     0.803587     1.579450     1.579450     1.579450     0.002618     0.001319     0.001362    -0.011021     0.105882    -0.062899   114
   115 1      9.96738      9.78701     -6.35459    -0.157974    -0.250930     0.602378     0.741093     1.579450     1.579450     1.579450     0.002793    -0.000058    -0.005625    -0.049516     0.064042     0.008383   115
   116 1     -6.33901     -1.12599      4.16611     0.814107    -0.091370     0.357010    -0.448805     1.579450     1.579450     1.579450    -0.001097    -0.001366    -0.003956     0.041476     0.003828     0.131934   116
   117 1     -9.80049      2.69612      1.61869    -0.126458     0.386698     0.471230    -0.782570     1.579450     1.579450     1.579450     0.001427    -0.007071     0.002965    -0.153700     0.042174    -0.106348   117
   118 1      2.24771      3.83601      5.77904    -0.203648     0.571908    -0.151518    -0.780058     1.579450     1.579450     1.579450    -0.002908    -0.000554     0.000175     0.006911     0.021491     0.015034   118
   119 1      4.80931     -8.23659     -8.85601    -0.213007     0.160214     0.118693     0.956489     1.579450     1.579450     1.579450     0.003209    -0.000484    -0.000283    -0.050717    -0.070360     0.040022   119
   120 1    -11.11739      0.01047     -1.78906     0.457923     0.462755     0.665624     0.364841     1.579450     1.579450     1.579450    -0.000782    -0.003455    -0.001622    -0.024416    -0.089093    -0.142957   120
   121 1     12.33251      2.76753     -4.56549     0.665619    -0.298508     0.462124     0.504267     1.579450     1.579450     1.579450    -0.003067     0.005193     0.001200     0.109905    -0.034632     0.067305   121
   122 1     -1.25614     -7.86389     -6.08561     0.096813    -0.277562     0.388820     0.873159     1.579450     1.579450     1.579450     0.010545    -0.001984    -0.001394    -0.097388    -0.042888    -0.102392   122
   123 1     -1.99690      2.83681    -10.35157    -0.819249    -0.128084    -0.041011     0.557444     1.579450     1.579450     1.579450    -0.003962     0.000104    -0.004689    -0.093708     0.048198    -0.165917   123
   124 1     10.92349     -6.95728     12.23970     0.657463     0.159060    -0.728169     0.110506     1.579450     1.579450     1.579450     0.007979    -0.001157    -0.005129     0.085431     0.076906    -0.109616   124
   125 1     -8.86828     -3.69578     10.57678     0.066403     0.772041    -0.348558    -0.527305     1.579450     1.579450     1.579450    -0.005767    -0.004855     0.002648    -0.073212     0.088928     0.085060   125
   126 1      3.72861     -6.47297      1.97231     0.045857    -0.718945    -0.664772    -0.197722     1.579450     1.579450     1.579450     0.001301    -0.003769    -0.003374     0.069450    -0.036068    -0.060872   126
   127 1      4.46959    -12.15690     10.59402     0.300097     0.242541     0.865200     0.320227     1.579450     1.579450     1.579450     0.000048    -0.001633    -0.000985     0.159695     0.033761     0.071046   127
   128 1     -4.96258     -0.36968     -4.96936    -0.855769    -0.270715     0.066115     0.435892     1.579450     1.579450     1.579450    -0.001019    -0.001278    -0.000665    -0.027149     0.031586     0.027738   128
   129 1      5.43291     -7.98429     11.47951    -0.113209     0.621498     0.688025    -0.357135     1.579450     1.579450     1.579450     0.009308     0.001275    -0.006938    -0.043503    -0.002169    -0.040796   129
   130 1      6.30561     11.26060     -1.72908    -0.169750     0.308062    -0.054650    -0.934503     1.579450     1.579450     1.579450    -0.005186    -0.006033     0.003300    -0.073700     0.062810    -0.082507   130
   131 1      6.90873      0.86609     -9.32259     0.581119    -0.222695    -0.577460    -0.528439     1.579450     1.579450     1.579450    -0.001668    -0.004133    -0.001309     0.027801     0.137525    -0.071594   131
   132 1      1.25439     -1.76027     10.54800    -0.503641     0.503464    -0.668626    -0.214029     1.579450     1.579450     1.579450     0.001276    -0.006749    -0.000754    -0.034742    -0.116437     0.013862   132
   133 1      9.08408     10.93532     -8.54812    -0.482426    -0.105857    -0.686607    -0.533508     1.579450     1.579450     1.579450     0.004491     0.000326     0.005760    -0.031260     0.091942    -0.011594   133